[Molden Format]
[N_Atoms]
                    12
[Atoms] (AU)
N1          1      7          52.24291571     55.38909268     55.28222389
C2          2      6          53.87578990     56.81114782     56.79199361
N3          3      7          56.33866383     56.38327000     56.53020880
C4          4      6          57.47748669     54.45942314     54.87844403
C5          5      6          55.57582435     53.01659544     53.48557546
C6          6      6          53.11900569     53.52630209     53.60293925
O7          7      8          52.88622845     58.39844410     60.29423823
O8          8      8          59.76595947     54.23176947     54.68348416
H9          9      1          56.01637551     51.65315262     52.04616836
H10        10      1          51.78883759     52.50450943     52.49324906
H11        11      1          50.40706126     55.70575132     55.69060679
H12        12      1          57.29251420     57.54815052     57.66156046
[Charge] (Mulliken)
 -0.839620771913644     
  0.601136328507835     
 -0.839486558901925     
  0.774533722489262     
 -0.341621584798325     
  0.151209812310807     
 -0.372258562450867     
 -0.482642684648523     
  0.244850013026657     
  0.238931729085139     
  0.426690831801733     
  0.438277725490007     
[GTO] (AU)
   1
   s   6
  0.417351100E+04  0.183479944E-02
  0.627457900E+03  0.139949958E-01
  0.142902100E+03  0.685869792E-01
  0.402343300E+02  0.232240930E+00
  0.128202100E+02  0.469069858E+00
  0.439043700E+01  0.360454891E+00
   s   3
  0.116263580E+02 -0.114961023E+00
  0.271628000E+01 -0.169118034E+00
  0.772218000E+00  0.114585223E+01
   s   1
  0.212031300E+00  0.100000000E+01
   p   3
  0.116263580E+02  0.675800232E-01
  0.271628000E+01  0.323907111E+00
  0.772218000E+00  0.740895255E+00
   p   1
  0.212031300E+00  0.100000000E+01
   d   1
  0.800000000E+00  0.100000000E+01
 
   2
   s   6
  0.304752490E+04  0.183470016E-02
  0.457369510E+03  0.140373012E-01
  0.103948690E+03  0.688426061E-01
  0.292101550E+02  0.232184421E+00
  0.928666300E+01  0.467941342E+00
  0.316392700E+01  0.362312032E+00
   s   3
  0.786827240E+01 -0.119332409E+00
  0.188128850E+01 -0.160854212E+00
  0.544249300E+00  0.114345648E+01
   s   1
  0.168714400E+00  0.100000000E+01
   p   3
  0.786827240E+01  0.689990956E-01
  0.188128850E+01  0.316423980E+00
  0.544249300E+00  0.744308252E+00
   p   1
  0.168714400E+00  0.100000000E+01
   d   1
  0.800000000E+00  0.100000000E+01
 
   3
   s   6
  0.417351100E+04  0.183479944E-02
  0.627457900E+03  0.139949958E-01
  0.142902100E+03  0.685869792E-01
  0.402343300E+02  0.232240930E+00
  0.128202100E+02  0.469069858E+00
  0.439043700E+01  0.360454891E+00
   s   3
  0.116263580E+02 -0.114961023E+00
  0.271628000E+01 -0.169118034E+00
  0.772218000E+00  0.114585223E+01
   s   1
  0.212031300E+00  0.100000000E+01
   p   3
  0.116263580E+02  0.675800232E-01
  0.271628000E+01  0.323907111E+00
  0.772218000E+00  0.740895255E+00
   p   1
  0.212031300E+00  0.100000000E+01
   d   1
  0.800000000E+00  0.100000000E+01
 
   4
   s   6
  0.304752490E+04  0.183470016E-02
  0.457369510E+03  0.140373012E-01
  0.103948690E+03  0.688426061E-01
  0.292101550E+02  0.232184421E+00
  0.928666300E+01  0.467941342E+00
  0.316392700E+01  0.362312032E+00
   s   3
  0.786827240E+01 -0.119332409E+00
  0.188128850E+01 -0.160854212E+00
  0.544249300E+00  0.114345648E+01
   s   1
  0.168714400E+00  0.100000000E+01
   p   3
  0.786827240E+01  0.689990956E-01
  0.188128850E+01  0.316423980E+00
  0.544249300E+00  0.744308252E+00
   p   1
  0.168714400E+00  0.100000000E+01
   d   1
  0.800000000E+00  0.100000000E+01
 
   5
   s   6
  0.304752490E+04  0.183470016E-02
  0.457369510E+03  0.140373012E-01
  0.103948690E+03  0.688426061E-01
  0.292101550E+02  0.232184421E+00
  0.928666300E+01  0.467941342E+00
  0.316392700E+01  0.362312032E+00
   s   3
  0.786827240E+01 -0.119332409E+00
  0.188128850E+01 -0.160854212E+00
  0.544249300E+00  0.114345648E+01
   s   1
  0.168714400E+00  0.100000000E+01
   p   3
  0.786827240E+01  0.689990956E-01
  0.188128850E+01  0.316423980E+00
  0.544249300E+00  0.744308252E+00
   p   1
  0.168714400E+00  0.100000000E+01
   d   1
  0.800000000E+00  0.100000000E+01
 
   6
   s   6
  0.304752490E+04  0.183470016E-02
  0.457369510E+03  0.140373012E-01
  0.103948690E+03  0.688426061E-01
  0.292101550E+02  0.232184421E+00
  0.928666300E+01  0.467941342E+00
  0.316392700E+01  0.362312032E+00
   s   3
  0.786827240E+01 -0.119332409E+00
  0.188128850E+01 -0.160854212E+00
  0.544249300E+00  0.114345648E+01
   s   1
  0.168714400E+00  0.100000000E+01
   p   3
  0.786827240E+01  0.689990956E-01
  0.188128850E+01  0.316423980E+00
  0.544249300E+00  0.744308252E+00
   p   1
  0.168714400E+00  0.100000000E+01
   d   1
  0.800000000E+00  0.100000000E+01
 
   7
   s   6
  0.548467170E+04  0.183109981E-02
  0.825234950E+03  0.139500985E-01
  0.188046960E+03  0.684450927E-01
  0.529645000E+02  0.232714275E+00
  0.168975700E+02  0.470192950E+00
  0.579963530E+01  0.358520862E+00
   s   3
  0.155396160E+02 -0.110777504E+00
  0.359993360E+01 -0.148026305E+00
  0.101376180E+01  0.113076704E+01
   s   1
  0.270005800E+00  0.100000000E+01
   p   3
  0.155396160E+02  0.708742995E-01
  0.359993360E+01  0.339752798E+00
  0.101376180E+01  0.727158595E+00
   p   1
  0.270005800E+00  0.100000000E+01
   d   1
  0.800000000E+00  0.100000000E+01
 
   8
   s   6
  0.548467170E+04  0.183109981E-02
  0.825234950E+03  0.139500985E-01
  0.188046960E+03  0.684450927E-01
  0.529645000E+02  0.232714275E+00
  0.168975700E+02  0.470192950E+00
  0.579963530E+01  0.358520862E+00
   s   3
  0.155396160E+02 -0.110777504E+00
  0.359993360E+01 -0.148026305E+00
  0.101376180E+01  0.113076704E+01
   s   1
  0.270005800E+00  0.100000000E+01
   p   3
  0.155396160E+02  0.708742995E-01
  0.359993360E+01  0.339752798E+00
  0.101376180E+01  0.727158595E+00
   p   1
  0.270005800E+00  0.100000000E+01
   d   1
  0.800000000E+00  0.100000000E+01
 
   9
   s   3
  0.187311370E+02  0.334945995E-01
  0.282539370E+01  0.234726947E+00
  0.640121700E+00  0.813757318E+00
   s   1
  0.161277800E+00  0.100000000E+01
 
  10
   s   3
  0.187311370E+02  0.334945995E-01
  0.282539370E+01  0.234726947E+00
  0.640121700E+00  0.813757318E+00
   s   1
  0.161277800E+00  0.100000000E+01
 
  11
   s   3
  0.187311370E+02  0.334945995E-01
  0.282539370E+01  0.234726947E+00
  0.640121700E+00  0.813757318E+00
   s   1
  0.161277800E+00  0.100000000E+01
 
  12
   s   3
  0.187311370E+02  0.334945995E-01
  0.282539370E+01  0.234726947E+00
  0.640121700E+00  0.813757318E+00
   s   1
  0.161277800E+00  0.100000000E+01
 
[MO]
Sym=     1a  
Ene=   -20.5920
Spin= Alpha
Occup=    2.00000
   1         0.00002912
   2        -0.00005781
   3         0.00015205
   4        -0.00006555
   5        -0.00016087
   6         0.00030325
   7         0.00003735
   8         0.00002583
   9         0.00038267
  10        -0.00000738
  11        -0.00000212
  12         0.00001078
  13         0.00000598
  14         0.00001469
  15        -0.00001234
  16         0.00015219
  17        -0.00024024
  18        -0.00015553
  19        -0.00040766
  20        -0.00014606
  21         0.00016991
  22         0.00016140
  23         0.00013977
  24         0.00031910
  25        -0.00001675
  26         0.00004849
  27         0.00001649
  28         0.00000441
  29         0.00001680
  30        -0.00002438
  31        -0.00011827
  32         0.00018400
  33        -0.00044584
  34         0.00071065
  35        -0.00108233
  36        -0.00045196
  37         0.00055413
  38        -0.00047051
  39        -0.00002388
  40        -0.00008467
  41         0.00005953
  42         0.00003418
  43        -0.00002682
  44        -0.00004378
  45         0.00010521
  46        -0.00129320
  47         0.00514466
  48         0.00300043
  49         0.00063295
  50        -0.00049660
  51        -0.00047936
  52        -0.00138385
  53        -0.00032586
  54        -0.00035974
  55        -0.00079022
  56        -0.00010862
  57        -0.00010115
  58         0.00017167
  59         0.00013732
  60         0.00010930
  61        -0.00038508
  62         0.00076957
  63        -0.00010556
  64         0.00171380
  65         0.00099209
  66         0.00106529
  67         0.00002908
  68         0.00000369
  69        -0.00002729
  70        -0.00001939
  71         0.00003732
  72         0.00003059
  73         0.00013739
  74         0.00011412
  75         0.00008473
  76         0.00015021
  77        -0.00022831
  78        -0.00035804
  79        -0.00063705
  80        -0.00004046
  81        -0.00002300
  82        -0.00056131
  83        -0.00003001
  84        -0.00005003
  85         0.00000853
  86         0.00000517
  87         0.00003747
  88         0.00003345
  89         0.00002230
  90        -0.00001047
  91         0.00176433
  92         0.00020473
  93         0.00007951
  94         0.00008319
  95         0.00001245
  96         0.00000404
  97         0.00004441
  98         0.00001393
  99         0.00004532
 100         0.00000444
 101         0.00000571
 102        -0.00000350
 103         0.00000150
 104         0.00000594
 105         0.00000065
 106         0.99749649
 107         0.01405654
 108        -0.00399605
 109        -0.00848421
 110         0.00128572
 111         0.00094925
 112        -0.00404576
 113         0.00082266
 114         0.00059567
 115        -0.00322923
 116        -0.00421486
 117        -0.00424485
 118        -0.00012483
 119        -0.00009239
 120         0.00013954
 121        -0.00035702
 122        -0.00054101
 123         0.00026325
 124         0.00017813
 125        -0.00000150
 126        -0.00004603
 127        -0.00024270
 128        -0.00018744
Sym=     2a  
Ene=   -20.5720
Spin= Alpha
Occup=    2.00000
   1         0.00002480
   2        -0.00005396
   3        -0.00014699
   4        -0.00002492
   5        -0.00003177
   6        -0.00009544
   7        -0.00010630
   8        -0.00000238
   9        -0.00006073
  10        -0.00002202
  11         0.00002093
  12         0.00002274
  13        -0.00000758
  14        -0.00000410
  15         0.00001549
  16        -0.00010629
  17         0.00020303
  18         0.00060876
  19        -0.00014222
  20         0.00028949
  21         0.00027379
  22         0.00007376
  23         0.00012255
  24         0.00006316
  25        -0.00000131
  26         0.00000290
  27         0.00002798
  28        -0.00000943
  29        -0.00000976
  30         0.00000696
  31         0.00002885
  32        -0.00004104
  33        -0.00022815
  34         0.00004929
  35        -0.00004619
  36         0.00000461
  37         0.00023761
  38        -0.00008445
  39        -0.00004333
  40        -0.00000763
  41         0.00002602
  42         0.00001657
  43        -0.00002042
  44        -0.00002433
  45        -0.00000031
  46        -0.00000664
  47         0.00000744
  48         0.00001826
  49        -0.00002795
  50         0.00005032
  51         0.00004852
  52        -0.00002920
  53        -0.00004552
  54        -0.00002318
  55        -0.00000294
  56        -0.00000485
  57        -0.00000210
  58        -0.00000110
  59        -0.00000244
  60        -0.00000601
  61         0.00000474
  62        -0.00000556
  63        -0.00007209
  64        -0.00002111
  65        -0.00002114
  66        -0.00000334
  67        -0.00003523
  68        -0.00003304
  69        -0.00002427
  70        -0.00000051
  71         0.00000152
  72         0.00000058
  73        -0.00000160
  74        -0.00000200
  75         0.00000054
  76        -0.00001457
  77         0.00003895
  78         0.00007841
  79        -0.00001350
  80         0.00004564
  81         0.00004306
  82         0.00000015
  83         0.00004319
  84         0.00005789
  85        -0.00000061
  86         0.00000063
  87        -0.00000239
  88        -0.00000232
  89         0.00000023
  90        -0.00000299
  91         0.99493397
  92         0.02024640
  93         0.00346106
  94         0.00010359
  95        -0.00017236
  96        -0.00044424
  97         0.00002591
  98        -0.00006559
  99        -0.00018194
 100        -0.00363623
 101        -0.00391222
 102        -0.00402241
 103         0.00009532
 104         0.00006794
 105        -0.00002897
 106        -0.00184193
 107         0.00000129
 108         0.00005037
 109         0.00006399
 110        -0.00002517
 111        -0.00003187
 112         0.00004214
 113        -0.00001147
 114        -0.00002624
 115         0.00000134
 116         0.00000924
 117         0.00000943
 118        -0.00000155
 119         0.00000037
 120        -0.00000125
 121         0.00001131
 122         0.00001439
 123        -0.00002061
 124        -0.00002823
 125        -0.00003081
 126        -0.00006867
 127        -0.00000919
 128        -0.00012064
Sym=     3a  
Ene=   -15.6390
Spin= Alpha
Occup=    2.00000
   1         0.99499051
   2         0.02519618
   3        -0.00368141
   4         0.00012700
   5        -0.00017250
   6         0.00004371
   7        -0.00116311
   8         0.00026171
   9         0.00010079
  10        -0.00339936
  11        -0.00338403
  12        -0.00336783
  13        -0.00000710
  14        -0.00001571
  15        -0.00005634
  16         0.00001118
  17         0.00019157
  18         0.00193453
  19        -0.00014554
  20        -0.00013734
  21        -0.00012990
  22        -0.00006917
  23        -0.00080193
  24        -0.00080130
  25        -0.00010687
  26        -0.00003029
  27        -0.00005183
  28        -0.00001534
  29        -0.00001998
  30         0.00003064
  31        -0.00266143
  32        -0.00000031
  33        -0.00104062
  34         0.00003121
  35         0.00000458
  36        -0.00001856
  37         0.00036963
  38         0.00030597
  39         0.00028766
  40         0.00005155
  41         0.00005551
  42         0.00005560
  43        -0.00001128
  44        -0.00001346
  45         0.00003340
  46        -0.00001029
  47        -0.00005653
  48         0.00111892
  49        -0.00001363
  50         0.00001818
  51         0.00000183
  52        -0.00075628
  53        -0.00015686
  54        -0.00014641
  55        -0.00000452
  56        -0.00000650
  57        -0.00001012
  58         0.00000466
  59         0.00000381
  60         0.00001500
  61         0.00002214
  62         0.00009233
  63        -0.00175117
  64         0.00005321
  65        -0.00001466
  66        -0.00000018
  67         0.00006114
  68        -0.00085991
  69        -0.00079196
  70         0.00001210
  71         0.00000739
  72         0.00002942
  73         0.00001601
  74         0.00001811
  75        -0.00000104
  76        -0.00000056
  77         0.00016737
  78         0.00213256
  79        -0.00009453
  80         0.00014322
  81         0.00014312
  82         0.00062782
  83         0.00099563
  84         0.00106800
  85        -0.00007147
  86        -0.00011483
  87        -0.00009556
  88         0.00002448
  89         0.00003629
  90        -0.00001014
  91        -0.00000175
  92        -0.00004252
  93         0.00015727
  94        -0.00000952
  95        -0.00001852
  96        -0.00000603
  97         0.00006616
  98         0.00002389
  99        -0.00008328
 100        -0.00001433
 101        -0.00003361
 102        -0.00000846
 103        -0.00000285
 104        -0.00001905
 105        -0.00001160
 106        -0.00001530
 107        -0.00003807
 108         0.00032109
 109         0.00001175
 110        -0.00000973
 111        -0.00000805
 112        -0.00002472
 113         0.00005455
 114         0.00004104
 115        -0.00003524
 116        -0.00002809
 117        -0.00002921
 118        -0.00000854
 119        -0.00000597
 120         0.00000501
 121        -0.00004406
 122        -0.00024010
 123         0.00001682
 124         0.00040258
 125         0.00018027
 126         0.00012106
 127        -0.00005129
 128        -0.00000073
Sym=     4a  
Ene=   -15.6340
Spin= Alpha
Occup=    2.00000
   1         0.00271733
   2         0.00013220
   3        -0.00100475
   4        -0.00001966
   5        -0.00000945
   6        -0.00002615
   7        -0.00046756
   8         0.00004407
   9        -0.00002217
  10         0.00003700
  11         0.00003101
  12         0.00003472
  13        -0.00001300
  14        -0.00001221
  15         0.00002795
  16         0.00003096
  17         0.00020024
  18         0.00198444
  19         0.00018655
  20        -0.00005101
  21        -0.00003317
  22         0.00069459
  23        -0.00058076
  24        -0.00051639
  25        -0.00017072
  26        -0.00004483
  27        -0.00004610
  28        -0.00002445
  29        -0.00002365
  30         0.00001214
  31         0.99496676
  32         0.02535692
  33        -0.00394551
  34        -0.00020426
  35        -0.00004174
  36        -0.00001780
  37         0.00058964
  38         0.00074218
  39         0.00070001
  40        -0.00335712
  41        -0.00343604
  42        -0.00341046
  43         0.00001986
  44         0.00001530
  45        -0.00005567
  46        -0.00003236
  47         0.00013653
  48         0.00154845
  49        -0.00009306
  50         0.00015607
  51         0.00013913
  52        -0.00156930
  53         0.00100064
  54         0.00083659
  55        -0.00007021
  56        -0.00009094
  57        -0.00009804
  58         0.00000054
  59         0.00000114
  60         0.00001950
  61         0.00000911
  62         0.00006496
  63        -0.00125017
  64        -0.00002413
  65        -0.00001660
  66        -0.00000892
  67         0.00087563
  68        -0.00066452
  69        -0.00054837
  70         0.00002381
  71        -0.00001717
  72        -0.00000320
  73         0.00000570
  74        -0.00000098
  75        -0.00001680
  76        -0.00000202
  77        -0.00002043
  78         0.00128250
  79         0.00000253
  80         0.00001344
  81         0.00000677
  82         0.00058936
  83         0.00009872
  84         0.00020718
  85         0.00001342
  86        -0.00000982
  87        -0.00000480
  88        -0.00000519
  89         0.00000480
  90         0.00000051
  91         0.00000178
  92        -0.00001422
  93         0.00006137
  94         0.00001563
  95        -0.00000992
  96        -0.00000035
  97        -0.00005669
  98         0.00001597
  99        -0.00005286
 100        -0.00001449
 101        -0.00001251
 102         0.00000613
 103         0.00001117
 104         0.00002034
 105        -0.00000799
 106         0.00000934
 107        -0.00024362
 108         0.00102502
 109        -0.00004359
 110         0.00000781
 111         0.00000628
 112        -0.00029235
 113        -0.00018496
 114        -0.00015094
 115        -0.00007838
 116        -0.00012376
 117        -0.00012545
 118         0.00005032
 119         0.00004142
 120         0.00000237
 121        -0.00005717
 122        -0.00029945
 123        -0.00000302
 124         0.00011807
 125        -0.00003582
 126         0.00001304
 127         0.00019012
 128         0.00014429
Sym=     5a  
Ene=   -11.3810
Spin= Alpha
Occup=    2.00000
   1        -0.00001576
   2         0.00011400
   3        -0.00088937
   4         0.00001672
   5         0.00009500
   6        -0.00018541
   7        -0.00035533
   8        -0.00077982
   9        -0.00089906
  10        -0.00003634
  11         0.00000380
  12        -0.00001414
  13        -0.00004161
  14        -0.00004667
  15         0.00000740
  16         0.00035039
  17        -0.00015765
  18         0.00041088
  19         0.00026546
  20         0.00021366
  21        -0.00003572
  22        -0.00110984
  23        -0.00104668
  24        -0.00141597
  25         0.00009981
  26        -0.00009853
  27        -0.00012031
  28         0.00001292
  29         0.00001276
  30         0.00015326
  31        -0.00012130
  32        -0.00003746
  33         0.00291459
  34        -0.00053309
  35         0.00103314
  36         0.00035056
  37        -0.00224797
  38         0.00074549
  39         0.00026986
  40        -0.00029072
  41        -0.00047659
  42        -0.00035114
  43         0.00035781
  44         0.00029950
  45        -0.00046345
  46         0.99765157
  47         0.02217704
  48        -0.01109643
  49        -0.00041829
  50         0.00093897
  51         0.00072560
  52         0.00785987
  53         0.00140435
  54         0.00140149
  55        -0.00062501
  56        -0.00177051
  57        -0.00185344
  58        -0.00019786
  59        -0.00014201
  60         0.00025335
  61         0.00417459
  62        -0.00082589
  63         0.00631645
  64        -0.00165308
  65        -0.00105251
  66        -0.00115855
  67         0.00074234
  68         0.00262199
  69         0.00254882
  70        -0.00044986
  71        -0.00029852
  72        -0.00031092
  73        -0.00025525
  74        -0.00022943
  75        -0.00013228
  76         0.00007383
  77         0.00005738
  78        -0.00103913
  79         0.00050662
  80        -0.00002231
  81         0.00000435
  82         0.00060437
  83        -0.00036344
  84        -0.00039971
  85         0.00007819
  86        -0.00001985
  87        -0.00008763
  88        -0.00005032
  89        -0.00002728
  90         0.00007228
  91         0.00003349
  92        -0.00026660
  93         0.00044754
  94        -0.00009378
  95        -0.00001666
  96         0.00003154
  97         0.00008475
  98        -0.00004562
  99        -0.00026506
 100        -0.00009167
 101        -0.00010322
 102        -0.00003832
 103        -0.00001320
 104        -0.00004967
 105         0.00000890
 106        -0.00349710
 107         0.00786671
 108         0.00207068
 109         0.00636780
 110        -0.00095224
 111        -0.00079314
 112         0.00630140
 113        -0.00135001
 114        -0.00121187
 115        -0.00008030
 116         0.00074370
 117         0.00075280
 118         0.00020808
 119         0.00020210
 120        -0.00009806
 121         0.00039227
 122         0.00133677
 123        -0.00023875
 124        -0.00001581
 125         0.00004969
 126         0.00001846
 127         0.00020950
 128         0.00027527
Sym=     6a  
Ene=   -11.3300
Spin= Alpha
Occup=    2.00000
   1        -0.00021795
   2         0.00062790
   3        -0.00155412
   4         0.00006681
   5        -0.00005196
   6         0.00007305
   7        -0.00207572
   8        -0.00001062
   9         0.00004256
  10        -0.00033282
  11        -0.00022074
  12        -0.00021125
  13        -0.00031504
  14        -0.00035854
  15        -0.00050956
  16         0.99603746
  17         0.02506485
  18        -0.00444597
  19         0.00138787
  20        -0.00240765
  21        -0.00211442
  22         0.00006792
  23         0.00062195
  24         0.00035651
  25        -0.00043510
  26        -0.00159724
  27        -0.00165459
  28         0.00003238
  29         0.00016709
  30         0.00063754
  31        -0.00033105
  32         0.00050137
  33        -0.00150899
  34         0.00002899
  35         0.00000209
  36        -0.00008479
  37         0.00231720
  38         0.00056781
  39         0.00061361
  40        -0.00088022
  41         0.00000012
  42         0.00005078
  43         0.00015056
  44         0.00005970
  45        -0.00018808
  46        -0.00069764
  47        -0.00068167
  48         0.00293036
  49         0.00010061
  50        -0.00003593
  51        -0.00007233
  52        -0.00577002
  53        -0.00048137
  54        -0.00059863
  55        -0.00004975
  56        -0.00009639
  57        -0.00013126
  58        -0.00004489
  59        -0.00002172
  60         0.00013896
  61        -0.00001092
  62         0.00036758
  63        -0.00758265
  64         0.00008943
  65        -0.00007161
  66        -0.00004692
  67         0.00115897
  68        -0.00294431
  69        -0.00254618
  70        -0.00004794
  71        -0.00002606
  72         0.00003298
  73         0.00003302
  74        -0.00000364
  75        -0.00006986
  76        -0.00044998
  77        -0.00058360
  78         0.00469152
  79        -0.00007255
  80        -0.00009321
  81        -0.00007137
  82         0.00365098
  83         0.00181777
  84         0.00220916
  85         0.00011011
  86         0.00000026
  87        -0.00000558
  88        -0.00004668
  89         0.00001851
  90         0.00020954
  91        -0.00008520
  92         0.00002003
  93         0.00063576
  94        -0.00000421
  95         0.00004158
  96         0.00005116
  97         0.00003286
  98        -0.00012244
  99        -0.00006850
 100        -0.00007642
 101        -0.00006289
 102        -0.00008932
 103        -0.00000419
 104         0.00000534
 105         0.00001434
 106        -0.00009989
 107        -0.00070284
 108         0.00431343
 109        -0.00008195
 110         0.00002723
 111         0.00002196
 112        -0.00092651
 113         0.00027828
 114         0.00027844
 115        -0.00035912
 116        -0.00038157
 117        -0.00037059
 118        -0.00003742
 119        -0.00003535
 120        -0.00002976
 121        -0.00009000
 122        -0.00091264
 123         0.00023367
 124         0.00167478
 125        -0.00017384
 126        -0.00030649
 127        -0.00009882
 128        -0.00024675
Sym=     7a  
Ene=   -11.2990
Spin= Alpha
Occup=    2.00000
   1        -0.00021812
   2         0.00035934
   3         0.00010044
   4         0.00002360
   5        -0.00020614
   6         0.00009187
   7        -0.00099375
   8         0.00071516
   9         0.00104347
  10        -0.00014145
  11        -0.00037113
  12        -0.00029437
  13         0.00016304
  14         0.00012212
  15        -0.00050790
  16         0.00037975
  17        -0.00029995
  18         0.00155992
  19         0.00001375
  20        -0.00002046
  21         0.00004144
  22         0.00143368
  23        -0.00073505
  24        -0.00083315
  25         0.00009150
  26         0.00005704
  27         0.00001174
  28         0.00000312
  29         0.00000907
  30         0.00016370
  31         0.00003163
  32         0.00013446
  33        -0.00184748
  34         0.00001589
  35         0.00010825
  36        -0.00008401
  37         0.00098171
  38        -0.00001244
  39        -0.00002879
  40         0.00000555
  41         0.00006606
  42         0.00006828
  43        -0.00000082
  44        -0.00001072
  45         0.00002609
  46        -0.00039101
  47        -0.00019835
  48         0.00066232
  49         0.00001687
  50         0.00002040
  51        -0.00001776
  52        -0.00095225
  53        -0.00028456
  54        -0.00035941
  55         0.00010347
  56        -0.00002379
  57        -0.00004081
  58         0.00003819
  59         0.00005399
  60         0.00002447
  61         0.02730629
  62         0.00055125
  63         0.00314623
  64         0.00020554
  65        -0.00004707
  66         0.00003252
  67        -0.00212053
  68        -0.00029268
  69        -0.00047821
  70        -0.00028330
  71        -0.00027486
  72        -0.00024643
  73        -0.00001357
  74        -0.00004627
  75        -0.00011489
  76         0.99516258
  77         0.02777650
  78        -0.00971240
  79        -0.00002174
  80         0.00051314
  81         0.00067191
  82        -0.00137701
  83         0.00094679
  84         0.00065666
  85        -0.00172622
  86        -0.00213281
  87        -0.00219164
  88        -0.00017038
  89        -0.00004163
  90         0.00049005
  91        -0.00003936
  92        -0.00010212
  93         0.00058309
  94         0.00000685
  95         0.00001165
  96         0.00006848
  97        -0.00002958
  98        -0.00005167
  99        -0.00024604
 100        -0.00011723
 101        -0.00010717
 102        -0.00003750
 103         0.00000782
 104         0.00001143
 105         0.00002117
 106        -0.00001018
 107        -0.00020067
 108         0.00080677
 109        -0.00002333
 110         0.00001015
 111        -0.00000385
 112        -0.00021102
 113         0.00000866
 114         0.00004395
 115        -0.00009729
 116        -0.00009604
 117        -0.00009892
 118         0.00002028
 119         0.00001685
 120         0.00000237
 121        -0.00006497
 122        -0.00017147
 123        -0.00014899
 124         0.00198893
 125        -0.00020729
 126        -0.00034422
 127         0.00001643
 128        -0.00003269
Sym=     8a  
Ene=   -11.2700
Spin= Alpha
Occup=    2.00000
   1         0.00006373
   2         0.00013300
   3        -0.00240741
   4         0.00003646
   5         0.00028082
   6        -0.00029153
   7        -0.00078184
   8         0.00049685
   9         0.00003063
  10         0.00020628
  11         0.00013778
  12         0.00012943
  13        -0.00006522
  14        -0.00004306
  15         0.00005683
  16         0.00004787
  17        -0.00004840
  18         0.00111572
  19        -0.00001343
  20         0.00000337
  21        -0.00001957
  22         0.00024233
  23        -0.00049168
  24        -0.00053884
  25         0.00000800
  26        -0.00000030
  27         0.00000871
  28        -0.00002469
  29         0.00001554
  30         0.00004390
  31         0.00003750
  32         0.00004002
  33        -0.00159812
  34        -0.00002045
  35        -0.00016226
  36         0.00018090
  37         0.00033824
  38         0.00015424
  39         0.00054078
  40         0.00009081
  41         0.00009972
  42         0.00008163
  43         0.00002158
  44         0.00001467
  45         0.00007721
  46        -0.00427281
  47        -0.00006669
  48         0.00543805
  49         0.00005588
  50         0.00007427
  51         0.00007294
  52        -0.00236486
  53        -0.00067053
  54        -0.00084029
  55        -0.00043274
  56        -0.00037249
  57        -0.00030916