[Molden Format]
[N_Atoms]
                    12
[Atoms] (AU)
N1          1      7          52.19423745     55.33117904     55.25559188
C2          2      6          53.81940003     56.76737089     56.71067722
N3          3      7          56.42722397     56.40832104     56.46501471
C4          4      6          57.42877504     54.44301154     54.93433844
C5          5      6          55.61463985     53.08240684     53.46035396
C6          6      6          53.15799400     53.51704385     53.61152827
O7          7      8          52.81784707     58.48702545     57.88230931
O8          8      8          59.77203921     54.21624063     54.68867594
H9          9      1          56.29494314     51.62732150     52.23202819
H10        10      1          52.09974926     52.15644104     52.42100270
H11        11      1          50.32340859     55.50125817     55.44456450
H12        12      1          57.54216238     57.46657145     57.56105587
[Charge] (Mulliken)
 -0.570951802602330     
  0.919892148652767     
 -0.873975515282031     
  0.609359813588870     
 -0.348607645744799     
  5.627068646579581E-002
 -0.453756290189519     
 -0.651976344391269     
  0.227868586058276     
  0.232420930593600     
  0.431268562339784     
  0.422186870508965     
[GTO] (AU)
   1
   s   6
  0.417351100E+04  0.183479944E-02
  0.627457900E+03  0.139949958E-01
  0.142902100E+03  0.685869792E-01
  0.402343300E+02  0.232240930E+00
  0.128202100E+02  0.469069858E+00
  0.439043700E+01  0.360454891E+00
   s   3
  0.116263580E+02 -0.114961023E+00
  0.271628000E+01 -0.169118034E+00
  0.772218000E+00  0.114585223E+01
   s   1
  0.212031300E+00  0.100000000E+01
   p   3
  0.116263580E+02  0.675800232E-01
  0.271628000E+01  0.323907111E+00
  0.772218000E+00  0.740895255E+00
   p   1
  0.212031300E+00  0.100000000E+01
   d   1
  0.800000000E+00  0.100000000E+01
 
   2
   s   6
  0.304752490E+04  0.183470016E-02
  0.457369510E+03  0.140373012E-01
  0.103948690E+03  0.688426061E-01
  0.292101550E+02  0.232184421E+00
  0.928666300E+01  0.467941342E+00
  0.316392700E+01  0.362312032E+00
   s   3
  0.786827240E+01 -0.119332409E+00
  0.188128850E+01 -0.160854212E+00
  0.544249300E+00  0.114345648E+01
   s   1
  0.168714400E+00  0.100000000E+01
   p   3
  0.786827240E+01  0.689990956E-01
  0.188128850E+01  0.316423980E+00
  0.544249300E+00  0.744308252E+00
   p   1
  0.168714400E+00  0.100000000E+01
   d   1
  0.800000000E+00  0.100000000E+01
 
   3
   s   6
  0.417351100E+04  0.183479944E-02
  0.627457900E+03  0.139949958E-01
  0.142902100E+03  0.685869792E-01
  0.402343300E+02  0.232240930E+00
  0.128202100E+02  0.469069858E+00
  0.439043700E+01  0.360454891E+00
   s   3
  0.116263580E+02 -0.114961023E+00
  0.271628000E+01 -0.169118034E+00
  0.772218000E+00  0.114585223E+01
   s   1
  0.212031300E+00  0.100000000E+01
   p   3
  0.116263580E+02  0.675800232E-01
  0.271628000E+01  0.323907111E+00
  0.772218000E+00  0.740895255E+00
   p   1
  0.212031300E+00  0.100000000E+01
   d   1
  0.800000000E+00  0.100000000E+01
 
   4
   s   6
  0.304752490E+04  0.183470016E-02
  0.457369510E+03  0.140373012E-01
  0.103948690E+03  0.688426061E-01
  0.292101550E+02  0.232184421E+00
  0.928666300E+01  0.467941342E+00
  0.316392700E+01  0.362312032E+00
   s   3
  0.786827240E+01 -0.119332409E+00
  0.188128850E+01 -0.160854212E+00
  0.544249300E+00  0.114345648E+01
   s   1
  0.168714400E+00  0.100000000E+01
   p   3
  0.786827240E+01  0.689990956E-01
  0.188128850E+01  0.316423980E+00
  0.544249300E+00  0.744308252E+00
   p   1
  0.168714400E+00  0.100000000E+01
   d   1
  0.800000000E+00  0.100000000E+01
 
   5
   s   6
  0.304752490E+04  0.183470016E-02
  0.457369510E+03  0.140373012E-01
  0.103948690E+03  0.688426061E-01
  0.292101550E+02  0.232184421E+00
  0.928666300E+01  0.467941342E+00
  0.316392700E+01  0.362312032E+00
   s   3
  0.786827240E+01 -0.119332409E+00
  0.188128850E+01 -0.160854212E+00
  0.544249300E+00  0.114345648E+01
   s   1
  0.168714400E+00  0.100000000E+01
   p   3
  0.786827240E+01  0.689990956E-01
  0.188128850E+01  0.316423980E+00
  0.544249300E+00  0.744308252E+00
   p   1
  0.168714400E+00  0.100000000E+01
   d   1
  0.800000000E+00  0.100000000E+01
 
   6
   s   6
  0.304752490E+04  0.183470016E-02
  0.457369510E+03  0.140373012E-01
  0.103948690E+03  0.688426061E-01
  0.292101550E+02  0.232184421E+00
  0.928666300E+01  0.467941342E+00
  0.316392700E+01  0.362312032E+00
   s   3
  0.786827240E+01 -0.119332409E+00
  0.188128850E+01 -0.160854212E+00
  0.544249300E+00  0.114345648E+01
   s   1
  0.168714400E+00  0.100000000E+01
   p   3
  0.786827240E+01  0.689990956E-01
  0.188128850E+01  0.316423980E+00
  0.544249300E+00  0.744308252E+00
   p   1
  0.168714400E+00  0.100000000E+01
   d   1
  0.800000000E+00  0.100000000E+01
 
   7
   s   6
  0.548467170E+04  0.183109981E-02
  0.825234950E+03  0.139500985E-01
  0.188046960E+03  0.684450927E-01
  0.529645000E+02  0.232714275E+00
  0.168975700E+02  0.470192950E+00
  0.579963530E+01  0.358520862E+00
   s   3
  0.155396160E+02 -0.110777504E+00
  0.359993360E+01 -0.148026305E+00
  0.101376180E+01  0.113076704E+01
   s   1
  0.270005800E+00  0.100000000E+01
   p   3
  0.155396160E+02  0.708742995E-01
  0.359993360E+01  0.339752798E+00
  0.101376180E+01  0.727158595E+00
   p   1
  0.270005800E+00  0.100000000E+01
   d   1
  0.800000000E+00  0.100000000E+01
 
   8
   s   6
  0.548467170E+04  0.183109981E-02
  0.825234950E+03  0.139500985E-01
  0.188046960E+03  0.684450927E-01
  0.529645000E+02  0.232714275E+00
  0.168975700E+02  0.470192950E+00
  0.579963530E+01  0.358520862E+00
   s   3
  0.155396160E+02 -0.110777504E+00
  0.359993360E+01 -0.148026305E+00
  0.101376180E+01  0.113076704E+01
   s   1
  0.270005800E+00  0.100000000E+01
   p   3
  0.155396160E+02  0.708742995E-01
  0.359993360E+01  0.339752798E+00
  0.101376180E+01  0.727158595E+00
   p   1
  0.270005800E+00  0.100000000E+01
   d   1
  0.800000000E+00  0.100000000E+01
 
   9
   s   3
  0.187311370E+02  0.334945995E-01
  0.282539370E+01  0.234726947E+00
  0.640121700E+00  0.813757318E+00
   s   1
  0.161277800E+00  0.100000000E+01
 
  10
   s   3
  0.187311370E+02  0.334945995E-01
  0.282539370E+01  0.234726947E+00
  0.640121700E+00  0.813757318E+00
   s   1
  0.161277800E+00  0.100000000E+01
 
  11
   s   3
  0.187311370E+02  0.334945995E-01
  0.282539370E+01  0.234726947E+00
  0.640121700E+00  0.813757318E+00
   s   1
  0.161277800E+00  0.100000000E+01
 
  12
   s   3
  0.187311370E+02  0.334945995E-01
  0.282539370E+01  0.234726947E+00
  0.640121700E+00  0.813757318E+00
   s   1
  0.161277800E+00  0.100000000E+01
 
[MO]
Sym=     1a  
Ene=   -20.5820
Spin= Alpha
Occup=    2.00000
   1        -0.00000139
   2        -0.00000414
   3         0.00013402
   4         0.00000387
   5         0.00000022
   6        -0.00000172
   7         0.00005985
   8         0.00000829
   9         0.00002083
  10         0.00000466
  11        -0.00000931
  12        -0.00000737
  13        -0.00000184
  14        -0.00000031
  15        -0.00001355
  16         0.00000801
  17         0.00003397
  18        -0.00003608
  19         0.00002188
  20        -0.00000349
  21         0.00000171
  22        -0.00004796
  23         0.00022044
  24         0.00016381
  25         0.00003992
  26         0.00000548
  27         0.00000775
  28         0.00001172
  29         0.00000932
  30        -0.00000944
  31        -0.00001094
  32        -0.00002982
  33         0.00016518
  34        -0.00003030
  35         0.00002269
  36         0.00002076
  37         0.00008327
  38        -0.00008958
  39        -0.00005342
  40        -0.00007583
  41        -0.00001193
  42        -0.00002723
  43         0.00004728
  44         0.00003789
  45         0.00003187
  46        -0.00000838
  47         0.00051297
  48        -0.00036286
  49         0.00005815
  50        -0.00000182
  51        -0.00000503
  52        -0.00070444
  53        -0.00005160
  54        -0.00006468
  55        -0.00068437
  56        -0.00005920
  57        -0.00006211
  58         0.00007417
  59         0.00008048
  60         0.00001133
  61        -0.00000120
  62         0.00001346
  63        -0.00020410
  64        -0.00001602
  65         0.00000645
  66         0.00000375
  67        -0.00004610
  68        -0.00008626
  69        -0.00009253
  70        -0.00008653
  71         0.00001641
  72         0.00001876
  73        -0.00000722
  74        -0.00001054
  75         0.00004264
  76         0.00000278
  77         0.00002201
  78        -0.00003687
  79         0.00002329
  80        -0.00000842
  81        -0.00000576
  82        -0.00003989
  83        -0.00001098
  84        -0.00001582
  85         0.00001535
  86         0.00000557
  87        -0.00000058
  88        -0.00002133
  89        -0.00001898
  90        -0.00000310
  91         0.00002166
  92         0.00004666
  93        -0.00027875
  94         0.00000272
  95        -0.00000591
  96        -0.00000141
  97        -0.00003912
  98         0.00004729
  99         0.00003011
 100         0.00002655
 101         0.00002731
 102         0.00002785
 103         0.00000145
 104         0.00000079
 105        -0.00000169
 106         0.99469187
 107         0.02093336
 108         0.00459043
 109        -0.00144066
 110         0.00015676
 111         0.00017826
 112         0.00006233
 113         0.00000738
 114         0.00000878
 115        -0.00371358
 116        -0.00404307
 117        -0.00404267
 118        -0.00004367
 119        -0.00003741
 120         0.00001653
 121        -0.00000466
 122        -0.00004071
 123         0.00000244
 124        -0.00002116
 125        -0.00000045
 126         0.00000399
 127        -0.00001080
 128        -0.00002017
Sym=     2a  
Ene=   -20.5710
Spin= Alpha
Occup=    2.00000
   1        -0.00001829
   2        -0.00008234
   3         0.00046154
   4        -0.00002220
   5        -0.00005223
   6        -0.00002140
   7         0.00014260
   8        -0.00000799
   9         0.00001607
  10         0.00001349
  11        -0.00009130
  12        -0.00008246
  13        -0.00001009
  14         0.00000581
  15        -0.00001787
  16        -0.00000620
  17         0.00050177
  18        -0.00076657
  19         0.00000977
  20        -0.00005617
  21         0.00000572
  22         0.00028892
  23        -0.00041181
  24        -0.00024653
  25        -0.00019557
  26        -0.00047751
  27        -0.00024075
  28         0.00031347
  29         0.00021433
  30        -0.00034281
  31        -0.00001075
  32        -0.00004032
  33         0.00021524
  34         0.00001758
  35        -0.00003208
  36         0.00001302
  37        -0.00015491
  38        -0.00007922
  39        -0.00005099
  40         0.00002445
  41        -0.00005161
  42        -0.00005095
  43         0.00007582
  44         0.00005215
  45        -0.00000109
  46         0.00000951
  47         0.00004846
  48        -0.00026956
  49        -0.00000741
  50         0.00000718
  51         0.00001751
  52         0.00042936
  53        -0.00001617
  54         0.00001127
  55        -0.00000952
  56         0.00003228
  57         0.00002800
  58         0.00000674
  59         0.00000198
  60         0.00001226
  61        -0.00000226
  62        -0.00001133
  63         0.00049756
  64         0.00000192
  65         0.00000676
  66         0.00001098
  67        -0.00010605
  68         0.00018807
  69         0.00017307
  70        -0.00001165
  71         0.00000198
  72         0.00000326
  73        -0.00000500
  74        -0.00000649
  75         0.00000121
  76         0.00000628
  77         0.00004088
  78        -0.00043979
  79        -0.00000509
  80         0.00000332
  81         0.00000920
  82        -0.00021196
  83        -0.00017970
  84        -0.00018614
  85         0.00000718
  86         0.00000443
  87         0.00000120
  88        -0.00001790
  89        -0.00002022
  90        -0.00001277
  91         0.99466911
  92         0.02102119
  93         0.00472818
  94         0.00070763
  95        -0.00120919
  96        -0.00075549
  97        -0.00001013
  98        -0.00004064
  99        -0.00002320
 100        -0.00390620
 101        -0.00385769
 102        -0.00400600
 103        -0.00012005
 104        -0.00006135
 105         0.00028055
 106        -0.00000047
 107         0.00005033
 108        -0.00032334
 109        -0.00000708
 110        -0.00000106
 111         0.00000282
 112         0.00006656
 113        -0.00000818
 114        -0.00001761
 115         0.00003293
 116         0.00003062
 117         0.00003034
 118         0.00000131
 119         0.00000184
 120        -0.00000030
 121         0.00000580
 122         0.00005870
 123        -0.00000650
 124        -0.00010290
 125        -0.00000492
 126        -0.00002695
 127         0.00000386
 128         0.00002327
Sym=     3a  
Ene=   -15.6550
Spin= Alpha
Occup=    2.00000
   1         0.99498907
   2         0.02546050
   3        -0.00477048
   4         0.00019940
   5        -0.00014474
   6         0.00006460
   7        -0.00157921
   8         0.00021474
   9         0.00006238
  10        -0.00336966
  11        -0.00337533
  12        -0.00338825
  13         0.00001296
  14        -0.00000225
  15        -0.00005816
  16         0.00001653
  17         0.00019505
  18         0.00179210
  19        -0.00013924
  20        -0.00016840
  21        -0.00014827
  22        -0.00063818
  23        -0.00124477
  24        -0.00116775
  25        -0.00009458
  26        -0.00005478
  27        -0.00005914
  28        -0.00003580
  29        -0.00003013
  30         0.00000649
  31        -0.00030046
  32         0.00003913
  33        -0.00067353
  34         0.00003772
  35        -0.00000679
  36        -0.00004026
  37         0.00015244
  38         0.00057902
  39         0.00052367
  40         0.00002851
  41         0.00002392
  42         0.00003178
  43        -0.00002357
  44        -0.00001502
  45         0.00002595
  46        -0.00000301
  47        -0.00003628
  48         0.00155860
  49        -0.00002219
  50         0.00002301
  51         0.00000793
  52        -0.00073588
  53        -0.00001545
  54        -0.00017747
  55         0.00001900
  56         0.00000806
  57         0.00000267
  58        -0.00000139
  59         0.00000443
  60         0.00001602
  61         0.00002714
  62         0.00011979
  63        -0.00193424
  64         0.00004743
  65         0.00000091
  66         0.00000798
  67         0.00017875
  68        -0.00113388
  69        -0.00100550
  70         0.00001060
  71         0.00002036
  72         0.00002719
  73         0.00002121
  74         0.00002107
  75        -0.00000657
  76         0.00000656
  77         0.00017899
  78         0.00253842
  79        -0.00010363
  80         0.00013510
  81         0.00015016
  82         0.00063728
  83         0.00138453
  84         0.00135386
  85        -0.00006624
  86        -0.00009854
  87        -0.00007813
  88         0.00002228
  89         0.00003144
  90        -0.00000312
  91        -0.00001554
  92        -0.00012277
  93         0.00060031
  94        -0.00002584
  95         0.00001702
  96         0.00002405
  97         0.00033044
  98        -0.00000912
  99         0.00009045
 100        -0.00001074
 101        -0.00008988
 102        -0.00009820
 103        -0.00003167
 104        -0.00000034
 105        -0.00000396
 106        -0.00000525
 107        -0.00002023
 108         0.00013949
 109         0.00000426
 110        -0.00000507
 111        -0.00001030
 112         0.00002396
 113         0.00001742
 114         0.00005993
 115        -0.00003097
 116        -0.00001122
 117        -0.00001069
 118        -0.00000311
 119        -0.00000921
 120         0.00000890
 121        -0.00006273
 122        -0.00040614
 123         0.00007056
 124         0.00051925
 125         0.00017585
 126         0.00003760
 127        -0.00009896
 128        -0.00004836
Sym=     4a  
Ene=   -15.6230
Spin= Alpha
Occup=    2.00000
   1         0.00033510
   2         0.00003893
   3        -0.00048310
   4        -0.00000603
   5        -0.00004115
   6        -0.00002148
   7        -0.00065725
   8         0.00045773
   9         0.00040377
  10        -0.00000608
  11         0.00003369
  12         0.00003292
  13        -0.00000036
  14        -0.00001177
  15         0.00004018
  16         0.00000585
  17         0.00023287
  18         0.00175795
  19         0.00024839
  20        -0.00007146
  21        -0.00000857
  22         0.00217613
  23        -0.00081964
  24        -0.00056881
  25        -0.00017216
  26        -0.00005145
  27        -0.00005631
  28        -0.00000404
  29        -0.00001054
  30         0.00001719
  31         0.99499901
  32         0.02553300
  33        -0.00525478
  34        -0.00029736
  35        -0.00020190
  36         0.00013497
  37         0.00126519
  38         0.00091178
  39         0.00064586
  40        -0.00342668
  41        -0.00334722
  42        -0.00328930
  43         0.00003180
  44         0.00003781
  45        -0.00009451
  46        -0.00000673
  47         0.00012557
  48         0.00184466
  49        -0.00009754
  50         0.00016615
  51         0.00015893
  52        -0.00171976
  53         0.00111167
  54         0.00084091
  55        -0.00004924
  56        -0.00008563
  57        -0.00008484
  58        -0.00000231
  59         0.00000838
  60         0.00000638
  61         0.00001925
  62         0.00008152
  63        -0.00143401
  64        -0.00004840
  65        -0.00002280
  66        -0.00001341
  67         0.00101491
  68        -0.00082675
  69        -0.00065069
  70         0.00002748
  71         0.00000603
  72        -0.00000190
  73        -0.00000559
  74         0.00000100
  75        -0.00001998
  76         0.00000615
  77         0.00000663
  78         0.00165987
  79         0.00001565
  80         0.00001908
  81         0.00003850
  82         0.00049339
  83         0.00021575
  84         0.00023393
  85         0.00002313
  86         0.00001356
  87         0.00001110
  88        -0.00000493
  89        -0.00000341
  90         0.00000423
  91        -0.00002804
  92        -0.00015947
  93         0.00106413
  94        -0.00000307
  95         0.00001613
  96         0.00002033
  97        -0.00026399
  98        -0.00028947
  99        -0.00015834
 100        -0.00015555
 101        -0.00005083
 102        -0.00008986
 103         0.00005517
 104         0.00003581
 105         0.00004068
 106        -0.00002876
 107        -0.00015803
 108         0.00105056
 109         0.00002766
 110         0.00000620
 111         0.00000206
 112        -0.00022734
 113        -0.00022651
 114        -0.00012099
 115        -0.00007959
 116        -0.00010424
 117        -0.00010908
 118         0.00005767
 119         0.00003590
 120        -0.00000138
 121        -0.00007764
 122        -0.00036735
 123        -0.00001951
 124         0.00006155
 125        -0.00009915
 126        -0.00007706
 127         0.00019928
 128         0.00003063
Sym=     5a  
Ene=   -11.4010
Spin= Alpha
Occup=    2.00000
   1        -0.00021191
   2         0.00048549
   3        -0.00134767
   4         0.00005706
   5         0.00021193
   6        -0.00018200
   7        -0.00123931
   8         0.00001249
   9        -0.00021388
  10        -0.00019138
  11        -0.00018147
  12        -0.00017956
  13        -0.00015914
  14        -0.00018662
  15        -0.00040709
  16         0.99581732
  17         0.02630444
  18        -0.00276471
  19         0.00006544
  20        -0.00004404
  21        -0.00080660
  22        -0.00178327
  23         0.00307288
  24         0.00200892
  25        -0.00106934
  26        -0.00139438
  27        -0.00177650
  28        -0.00031021
  29        -0.00010381
  30         0.00083611
  31        -0.00022255
  32         0.00034503
  33         0.00002417
  34        -0.00004463
  35         0.00027976
  36        -0.00026599
  37         0.00131854
  38         0.00027693
  39        -0.00005894
  40        -0.00067013
  41        -0.00004344
  42         0.00001684
  43         0.00008581
  44         0.00009487
  45        -0.00014136
  46        -0.00035638
  47        -0.00064278
  48         0.00228739
  49         0.00009058
  50         0.00002881
  51        -0.00010790
  52        -0.00493621
  53        -0.00010207
  54        -0.00033958
  55        -0.00008062
  56        -0.00009504
  57        -0.00014340
  58        -0.00005631
  59         0.00000381
  60         0.00010830
  61         0.00001003
  62         0.00021606
  63        -0.00588327
  64         0.00000731
  65        -0.00007665
  66        -0.00009541
  67         0.00126608
  68        -0.00233878
  69        -0.00213203
  70        -0.00001758
  71        -0.00000374
  72        -0.00002504
  73         0.00003766
  74         0.00001962
  75        -0.00004302
  76        -0.00011538
  77        -0.00055464
  78         0.00442601
  79        -0.00001903
  80        -0.00004210
  81        -0.00010472
  82         0.00268063
  83         0.00204319
  84         0.00207176
  85         0.00006359
  86         0.00002188
  87        -0.00000922
  88        -0.00002098
  89         0.00002738
  90         0.00023267
  91        -0.00019556
  92         0.00097539
  93        -0.00525329
  94         0.00017863
  95        -0.00001717
  96        -0.00044897
  97        -0.00093665
  98         0.00194017
  99         0.00092991
 100         0.00042828
 101         0.00031260
 102         0.00050436
 103         0.00004425
 104        -0.00001711
 105        -0.00016018
 106        -0.00012655
 107        -0.00055520
 108         0.00387056
 109         0.00002140
 110         0.00001189
 111        -0.00001432
 112        -0.00083948
 113         0.00012460
 114         0.00024264
 115        -0.00030555
 116        -0.00035375
 117        -0.00033557
 118        -0.00001980
 119        -0.00002744
 120        -0.00002736
 121        -0.00008466
 122        -0.00079675
 123         0.00015829
 124         0.00133318
 125        -0.00010510
 126        -0.00021913
 127        -0.00011714
 128        -0.00009999
Sym=     6a  
Ene=   -11.3250
Spin= Alpha
Occup=    2.00000
   1         0.00003933
   2         0.00018111
   3        -0.00207641
   4        -0.00000605
   5         0.00000643
   6        -0.00000588
   7        -0.00115874
   8        -0.00033483
   9        -0.00054128
  10         0.00000586
  11         0.00008678
  12         0.00006416
  13        -0.00000932
  14        -0.00004457
  15         0.00001000
  16         0.00015803
  17        -0.00054494
  18         0.00005206
  19        -0.00011197
  20         0.00009338
  21        -0.00007665
  22        -0.00002309
  23        -0.00321652
  24        -0.00248541
  25        -0.00001473
  26        -0.00015769
  27        -0.00012788
  28         0.00000691
  29         0.00000051
  30         0.00007422
  31        -0.00020995
  32         0.00035515
  33         0.00064229
  34         0.00014708
  35         0.00015216
  36        -0.00033007
  37        -0.00151080
  38         0.00150098
  39         0.00068180
  40        -0.00024596
  41        -0.00042133
  42        -0.00018653
  43         0.00028392
  44         0.00020169
  45        -0.00043298
  46         0.99577661
  47         0.02726750
  48        -0.00714434
  49         0.00046110
  50         0.00096097
  51         0.00011389
  52         0.00670598
  53         0.00137137
  54         0.00148592
  55        -0.00074478
  56        -0.00181314
  57        -0.00196532
  58        -0.00014667
  59        -0.00013045
  60         0.00045091
  61         0.00488283
  62        -0.00007345
  63         0.00617615
  64         0.00002951
  65         0.00003760
  66        -0.00020459
  67         0.00098028
  68         0.00236939
  69         0.00221508
  70        -0.00036705
  71        -0.00022910
  72        -0.00024863
  73        -0.00004893
  74        -0.00007965
  75        -0.00007306
  76         0.00003001
  77        -0.00012192
  78        -0.00078553
  79        -0.00009875
  80         0.00008402
  81        -0.00004524
  82         0.00020685
  83        -0.00017806
  84        -0.00019728
  85         0.00013121
  86        -0.00000043
  87         0.00001111
  88         0.00001195
  89         0.00001822
  90         0.00006373
  91        -0.00012999
  92        -0.00057113
  93         0.00383353
  94        -0.00001895
  95         0.00003272
  96         0.00000235
  97         0.00063077
  98        -0.00062529
  99        -0.00034464
 100        -0.00034728
 101        -0.00033470
 102        -0.00033870
 103        -0.00005582
 104        -0.00003148
 105         0.00000823
 106        -0.00009365
 107         0.00113935
 108        -0.00621232
 109        -0.00019566
 110         0.00028561
 111        -0.00013177
 112         0.00262912
 113        -0.00040001
 114        -0.00087702
 115         0.00001227
 116         0.00064946
 117         0.00062887
 118         0.00013458
 119         0.00021143
 120        -0.00011086
 121         0.00001210
 122         0.00060650
 123         0.00000705
 124         0.00026692
 125        -0.00005686
 126        -0.00016405
 127        -0.00008675
 128        -0.00006193
Sym=     7a  
Ene=   -11.2890
Spin= Alpha
Occup=    2.00000
   1        -0.00020631
   2         0.00046762
   3        -0.00097948
   4         0.00003397
   5        -0.00021239
   6         0.00014231
   7        -0.00169200
   8         0.00131572
   9         0.00147664
  10        -0.00016259
  11        -0.00032897
  12        -0.00027112
  13         0.00021841
  14         0.00017634
  15        -0.00055924
  16        -0.00001434
  17        -0.00035979
  18         0.00140811
  19        -0.00004072
  20        -0.00003536
  21         0.00006168
  22         0.00279378
  23        -0.00197172
  24        -0.00157606
  25         0.00009239
  26         0.00002770
  27         0.00001080
  28         0.00001522
  29         0.00001748
  30         0.00015112
  31         0.00007000
  32         0.00028300
  33        -0.00306748
  34        -0.00000516
  35        -0.00006624
  36         0.00003433
  37         0.00150630
  38         0.00033098
  39         0.00036721
  40         0.00003305
  41         0.00014734
  42         0.00015612
  43        -0.00001355
  44        -0.00000234
  45         0.00001607
  46        -0.00012112
  47        -0.00015084
  48         0.00116899
  49        -0.00003517
  50        -0.00001401
  51         0.00008834
  52        -0.00082678
  53        -0.00027655
  54        -0.00031823
  55         0.00019305
  56         0.00001039
  57         0.00002197
  58         0.00003727
  59         0.00005626
  60         0.00003133
  61         0.01449803
  62         0.00017070
  63         0.00368339
  64         0.00010229
  65        -0.00010730
  66         0.00012781
  67        -0.00238768
  68        -0.00061230
  69        -0.00063915
  70        -0.00016509
  71        -0.00022857
  72        -0.00021551
  73        -0.00007399
  74        -0.00009164
  75        -0.00012654
  76         0.99547326
  77         0.02776142
  78        -0.00943966
  79        -0.00019516
  80         0.00055791
  81         0.00091370
  82        -0.00202856
  83         0.00150830
  84         0.00117296
  85        -0.00180450
  86        -0.00198842
  87        -0.00209126
  88        -0.00026598
  89        -0.00017720
  90         0.00054682
  91        -0.00007426
  92        -0.00032120
  93         0.00250190
  94        -0.00002138
  95         0.00001140
  96        -0.00003152
  97         0.00009086
  98        -0.00041834
  99        -0.00015445
 100        -0.00022502
 101        -0.00018973
 102        -0.00019725
 103         0.00001022
 104         0.00000103
 105        -0.00005689
 106        -0.00002042
 107        -0.00008646
 108         0.00047978
 109         0.00001780
 110        -0.00001883
 111        -0.00000940
 112        -0.00005998
 113        -0.00006211
 114        -0.00001645
 115        -0.00009498
 116        -0.00005293
 117        -0.00005037
 118         0.00003500
 119         0.00002729
 120         0.00000247
 121        -0.00009856
 122        -0.00036493
 123        -0.00005208
 124         0.00196159
 125        -0.00024026
 126        -0.00047041
 127        -0.00006297
 128        -0.00017416
Sym=     8a  
Ene=   -11.2320
Spin= Alpha
Occup=    2.00000
   1         0.00007685
   2         0.00016961
   3        -0.00274518
   4         0.00003752
   5        -0.00002324
   6        -0.00001410
   7        -0.00101338
   8         0.00044845
   9         0.00036633
  10         0.00021274
  11         0.00016140
  12         0.00015145
  13        -0.00005619
  14        -0.00004360
  15         0.00004534
  16         0.00001240
  17        -0.00007018
  18         0.00093114
  19        -0.00000738
  20        -0.00001914
  21        -0.00000928
  22         0.00068048
  23        -0.00096936
  24        -0.00082061
  25         0.00000514
  26        -0.00001072
  27        -0.00000559
  28        -0.00000853
  29        -0.00000008
  30         0.00002943
  31         0.00005846
  32         0.00012049
  33        -0.00226200
  34        -0.00001376
  35        -0.00003736
  36         0.00000518
  37         0.00051753
  38         0.00058892
  39         0.00052198
  40         0.00012603
  41         0.00014670
  42         0.00014310
  43        -0.00000577
  44         0.00002150
  45         0.00007640
  46        -0.00535509
  47        -0.00022146
  48         0.00603047
  49         0.00005235
  50         0.00008810
  51         0.00011907
  52        -0.00244589
  53        -0.00050372
  54        -0.00080458
  55        -0.00036717
  56        -0.00031698
  57        -0.00032000